# LAMMPS data file written by OVITO Basic 3.11.1

4 atoms
2 atom types
0.0 25.0 xlo xhi
0.0 25.0 ylo yhi
0.0 25.0 zlo zhi

Masses

1 1.00794  # H
2 14.0067  # N

Atoms  # atomic

1 1 2 0    2.682   2.993   2.539     0 0 0 
2 1 1 0    1.881   2.646   2.025     0 0 0 
3 1 1 0    2.336   3.507   3.340     0 0 0 
4 1 1 0    3.063   2.400   2.796     0 0 0 

