ITEM: TIMESTEP
0
ITEM: NUMBER OF ATOMS
5
ITEM: BOX BOUNDS pp pp pp
0.0000000000000000e+00 2.5000000000000000e+01
0.0000000000000000e+00 2.5000000000000000e+01
0.0000000000000000e+00 2.5000000000000000e+01
ITEM: ATOMS id type xu yu zu q
1 2 0.678 0 0.157 -0.455869
4 1 -0.927 0 0.319 0.464644
3 1 1.045 0.814 -0.33 0.259017
5 3 -0.714 0 -0.134 -0.526896
2 1 1.045 -0.813 -0.331 0.259103
