ITEM: TIMESTEP
0
ITEM: NUMBER OF ATOMS
5
ITEM: BOX BOUNDS pp pp pp
0.0000000000000000e+00 2.5000000000000000e+01
0.0000000000000000e+00 2.5000000000000000e+01
0.0000000000000000e+00 2.5000000000000000e+01
ITEM: ATOMS id type xu yu zu q
1 2 0.678 0 0.157 -0.396415
3 1 1.045 0.814 -0.33 0.248384
4 1 -1.674 0 -0.164 0.30231
5 3 -0.714 0 -0.134 -0.402728
2 1 1.045 -0.813 -0.331 0.248449
