ITEM: TIMESTEP
0
ITEM: NUMBER OF ATOMS
5
ITEM: BOX BOUNDS pp pp pp
0.0000000000000000e+00 2.5000000000000000e+01
0.0000000000000000e+00 2.5000000000000000e+01
0.0000000000000000e+00 2.5000000000000000e+01
ITEM: ATOMS id type xu yu zu q
1 2 0.67826 -2e-05 0.15746 -0.451012
4 1 -1.12234 -0.00065 0.73476 0.327532
3 1 1.04465 0.81361 -0.32993 0.257918
2 1 1.04494 -0.81287 -0.331 0.257924
5 3 -0.71419 -8e-05 -0.13399 -0.392361
