# LAMMPS data file written by OVITO Basic 3.11.1

4 atoms
2 atom types
0.0 25.0 xlo xhi
0.0 25.0 ylo yhi
0.0 25.0 zlo zhi

Masses

1 1.00794  # H
2 14.0067  # N

Atoms  # atomic

1 1 2 0    2.68247303127870      2.99325739880674      2.53914368359717    0 0 0 
2 1 1 0   1.88134559100716      2.64646637013410      2.02518044694997      0 0 0 
3 1 1 0   2.33567448846310      3.50722391441695      3.34026431507186      0 0 0 
4 1 1 0   3.19643388925104      2.19212531664221      2.88592455438101      0 0 0 

