ITEM: TIMESTEP
0
ITEM: NUMBER OF ATOMS
4
ITEM: BOX BOUNDS pp pp pp
0.0000000000000000e+00 2.5000000000000000e+01
0.0000000000000000e+00 2.5000000000000000e+01
0.0000000000000000e+00 2.5000000000000000e+01
ITEM: ATOMS id type xu yu zu q
1 2 2.68247 2.99326 2.53914 -0.695207
2 1 1.88135 2.64647 2.02518 0.231735
3 1 2.33567 3.50722 3.34026 0.231736
4 1 3.19643 2.19213 2.88592 0.231736
