ITEM: TIMESTEP
0
ITEM: NUMBER OF ATOMS
4
ITEM: BOX BOUNDS pp pp pp
0.0000000000000000e+00 2.5000000000000000e+01
0.0000000000000000e+00 2.5000000000000000e+01
0.0000000000000000e+00 2.5000000000000000e+01
ITEM: ATOMS id type xu yu zu q
1 2 2.682 2.993 2.539 -0.68319
2 1 1.881 2.646 2.025 0.232231
3 1 2.336 3.507 3.34 0.232266
4 1 3.24 2.123 2.916 0.218693
