# LAMMPS data file written by OVITO Basic 3.11.1

5 atoms
3 atom types
0.0 25.0 xlo xhi
0.0 25.0 ylo yhi
0.0 25.0 zlo zhi

Masses

1 1.00794  # H
2 14.00670  # N
3 15.99900  # O

Atoms  # atomic

1 1 2 0 0.678 -0.000 0.157 0 0 0
2 1 1 0 0.448 -0.790 -0.440 0 0 0
3 1 1 0 1.045 0.814 -0.330 0 0 0
4 1 1 0 -1.122 -0.001 0.735 0 0 0
5 1 3 0 -0.714 -0.000 -0.134 0 0 0
