# LAMMPS data file written by OVITO Basic 3.11.1

5 atoms
3 atom types
0.0 25.0 xlo xhi
0.0 25.0 ylo yhi
0.0 25.0 zlo zhi

Masses

1 1.00794  # H
2 14.00670  # N
3 15.99900  # O

Atoms  # atomic

1 1 2 0 0.67826 -0.00002 0.15746 0  0 0
2 1 1 0 1.04494 -0.81287 -0.33100 0 0 0
3 1 1 0 1.04465 0.81361 -0.32993 0  0 0
4 1 1 0 -1.12234 -0.00065 0.73476 0 0 0
5 1 3 0 -0.71419 -0.00008 -0.13399 0 0 0
