ITEM: TIMESTEP
0
ITEM: NUMBER OF ATOMS
5
ITEM: BOX BOUNDS pp pp pp
0.0000000000000000e+00 2.5000000000000000e+01
0.0000000000000000e+00 2.5000000000000000e+01
0.0000000000000000e+00 2.5000000000000000e+01
ITEM: ATOMS id type xu yu zu q
1 2 0.678 0 0.157 -0.43046
2 1 1.599 -0.42 0.058 0.222144
4 1 -1.122 -0.001 0.735 0.325431
3 1 1.045 0.814 -0.33 0.244965
5 3 -0.714 0 -0.134 -0.36208
