# LAMMPS data file written by OVITO Basic 3.11.1

5 atoms
3 atom types
0.0 25.0 xlo xhi
0.0 25.0 ylo yhi
0.0 25.0 zlo zhi

Masses

1 1.00794  # H
2 14.00670  # N
3 15.99900  # O

Atoms  # atomic

1 1 2 0  0.67825668527533     -0.00001501033296      0.15746202411265 0 0 0
2 1 1 0  1.04494231110899     -0.81286523607629     -0.33100284081405 0 0 0
3 1 1 0  1.04465343171697      0.81361073146851     -0.32992900984308 0 0 0
4 1 1 0 -1.12233805894420     -0.00064589826133      0.73476494007296 0 0 0
5 1 3 0 -0.71419436915709     -0.00008458679794     -0.133985113528494 0 0 0
