ITEM: TIMESTEP
0
ITEM: NUMBER OF ATOMS
5
ITEM: BOX BOUNDS pp pp pp
0.0000000000000000e+00 2.5000000000000000e+01
0.0000000000000000e+00 2.5000000000000000e+01
0.0000000000000000e+00 2.5000000000000000e+01
ITEM: ATOMS id type xu yu zu q
1 2 0.678257 -1.50103e-05 0.157462 -0.451011
4 1 -1.12234 -0.000645898 0.734765 0.327533
3 1 1.04465 0.813611 -0.329929 0.257917
2 1 1.04494 -0.812865 -0.331003 0.257923
5 3 -0.714194 -8.45868e-05 -0.133985 -0.392361
